 Gaussian 03, Revision E.01,
 Gaussian 03:  IA64L-G03RevE.01 11-Sep-2007

 ----------------------------------------------------------------------
 #p nmr=(giao,spinspin,mixed) b3lyp/cc-pvdz geom=checkpoint scf=tight i
 ntegral=(grid=ultrafine)
 ----------------------------------------------------------------------

 Sucrose NMR properties.
 -----------------------
 Redundant internal coordinates taken from checkpoint file:
 sucrose.chk
 Charge =  0 Multiplicity = 1

 SCF Done:  E(RB+HF-LYP) =  -1298.11100846     A.U. after   12 cycles
 Normal termination of Gaussian 03 at Tue May 25 13:52:05 2010.

 ----------------------------------------------------------------------
 #P Geom=AllCheck Guess=Read SCRF=Check GenChk RB3LYP/ChkBas NMR=ReadFC
  IOp(3/6=22)
 ----------------------------------------------------------------------

 Sucrose NMR properties.
 -----------------------
 Redundant internal coordinates taken from checkpoint file:
 sucrose.chk
 Charge =  0 Multiplicity = 1

                         Standard orientation:
 ---------------------------------------------------------------------
 Center     Atomic     Atomic              Coordinates (Angstroms)
 Number     Number      Type              X           Y           Z
 ---------------------------------------------------------------------
    1          6             0       -0.654528    0.511718   -0.891463
    2          6             0       -2.076884    1.068270   -1.029747
    3          6             0       -2.976447    0.438474    0.036217
    4          6             0       -2.924704   -1.081470   -0.052551
    5          6             0       -1.470643   -1.543203    0.057015
    6          6             0       -1.288633   -3.041403   -0.142046
    7          8             0       -0.171262    0.946646    0.363024
    8          8             0       -2.131719    2.482496   -0.968195
    9          8             0       -4.333153    0.835155   -0.131835
   10          8             0       -3.666962   -1.695023    0.991145
   11          8             0       -0.677997   -0.907344   -0.974265
   12          8             0        0.088787   -3.403309   -0.159292
   13          6             0        1.207898    2.797157    0.896683
   14          6             0        1.203418    1.307792    0.549675
   15          6             0        1.814376    0.434585    1.659941
   16          6             0        2.315212   -0.777852    0.884340
   17          6             0        2.823830   -0.118472   -0.405980
   18          6             0        2.772573   -1.003767   -1.633452
   19          8             0        0.433599    3.489997   -0.076834
   20          8             0        1.997178    1.060712   -0.588616
   21          8             0        0.894594    0.164748    2.689395
   22          8             0        3.317993   -1.443633    1.640783
   23          8             0        3.458287   -0.353177   -2.688642
   24          1             0        0.001525    0.848695   -1.702969
   25          1             0       -2.458645    0.771431   -2.022102
   26          1             0       -2.606436    0.742408    1.034144
   27          1             0       -3.322060   -1.382401   -1.044853
   28          1             0       -1.071128   -1.252381    1.043357
   29          1             0       -1.793357   -3.356962   -1.076893
   30          1             0       -1.759776   -3.575504    0.694421
   31          1             0       -1.360676    2.788401   -0.449450
   32          1             0       -4.314242    1.803786   -0.201738
   33          1             0       -4.513368   -1.221000    1.025042
   34          1             0        0.471362   -2.896314   -0.891908
   35          1             0        2.253534    3.150444    0.902814
   36          1             0        0.778799    2.910276    1.909885
   37          1             0        2.712117    0.960196    2.049415
   38          1             0        1.470617   -1.455197    0.676150
   39          1             0        3.867738    0.210970   -0.256775
   40          1             0        3.255790   -1.969685   -1.366773
   41          1             0        1.713146   -1.203416   -1.883223
   42          1             0        0.561021    4.440335    0.047865
   43          1             0        1.335303   -0.453325    3.293143
   44          1             0        3.324912   -2.373995    1.375940
   45          1             0        3.306254   -0.855892   -3.500629
 ---------------------------------------------------------------------

 SCF Done:  E(RB+HF-LYP) =  -1297.98545959     A.U. after   10 cycles

  1  C    Isotropic =    99.9571   Anisotropy =    37.6948

  2  C    Isotropic =   116.7964   Anisotropy =    29.3914

  3  C    Isotropic =   114.7690   Anisotropy =    19.2371

  4  C    Isotropic =   117.1067   Anisotropy =    30.3354

  5  C    Isotropic =   117.9244   Anisotropy =    40.3410

  6  C    Isotropic =   127.1392   Anisotropy =    53.5047

  7  O    Isotropic =   228.6799   Anisotropy =    67.5670

  8  O    Isotropic =   310.9728   Anisotropy =    60.6490

  9  O    Isotropic =   306.6057   Anisotropy =    45.5547

 10  O    Isotropic =   303.0975   Anisotropy =    32.5826

 11  O    Isotropic =   239.6235   Anisotropy =    69.5018

 12  O    Isotropic =   305.4174   Anisotropy =    25.7456

 13  C    Isotropic =   122.6336   Anisotropy =    42.1759

 14  C    Isotropic =    85.8539   Anisotropy =    23.0902

 15  C    Isotropic =   111.1820   Anisotropy =    30.2384

 16  C    Isotropic =   115.1172   Anisotropy =    35.7648

 17  C    Isotropic =   106.3856   Anisotropy =    43.4917

 18  C    Isotropic =   125.7249   Anisotropy =    51.7429

 19  O    Isotropic =   313.4626   Anisotropy =    91.7816

 20  O    Isotropic =   233.3234   Anisotropy =    64.4088

 21  O    Isotropic =   302.7288   Anisotropy =    24.8425

 22  O    Isotropic =   306.8417   Anisotropy =    33.5011

 23  O    Isotropic =   306.9384   Anisotropy =    93.5600

 24  H    Isotropic =    25.7946   Anisotropy =     1.6783

 25  H    Isotropic =    28.2898   Anisotropy =     3.1953

 26  H    Isotropic =    27.8658   Anisotropy =     8.4655

 27  H    Isotropic =    28.3767   Anisotropy =     1.9566

 28  H    Isotropic =    27.2465   Anisotropy =     3.4960

 29  H    Isotropic =    27.9086   Anisotropy =     6.8759

 30  H    Isotropic =    27.5127   Anisotropy =     5.7749

 31  H    Isotropic =    28.4683   Anisotropy =    24.4698

 32  H    Isotropic =    29.8924   Anisotropy =    16.8221

 33  H    Isotropic =    30.2447   Anisotropy =    17.6898

 34  H    Isotropic =    31.1558   Anisotropy =    13.7071

 35  H    Isotropic =    27.7584   Anisotropy =     5.4809

 36  H    Isotropic =    27.2834   Anisotropy =     4.9978

 37  H    Isotropic =    27.9109   Anisotropy =     3.2622

 38  H    Isotropic =    27.1653   Anisotropy =     8.0196

 39  H    Isotropic =    27.6399   Anisotropy =     6.4128

 40  H    Isotropic =    27.7793   Anisotropy =     3.9166

 41  H    Isotropic =    27.3920   Anisotropy =     9.1624

 42  H    Isotropic =    31.4891   Anisotropy =    21.6156

 43  H    Isotropic =    30.4660   Anisotropy =    17.7786

 44  H    Isotropic =    30.9071   Anisotropy =    18.0922

 45  H    Isotropic =    31.6500   Anisotropy =    18.8460

 The electronic state is 1-A.
 Alpha  occ. eigenvalues --  -19.16392 -19.16005 -19.15736 -19.15474 -19.15392
 Alpha  occ. eigenvalues --  -19.15196 -19.14260 -19.13961 -19.13199 -19.13087
 Alpha  occ. eigenvalues --  -19.12374 -10.30088 -10.28343 -10.24827 -10.24696
 Alpha  occ. eigenvalues --  -10.24371 -10.24339 -10.24285 -10.22937 -10.22799
 Alpha  occ. eigenvalues --  -10.22778 -10.22661 -10.22011  -1.09818  -1.06059
 Alpha  occ. eigenvalues --   -1.04511  -1.03966  -1.03168  -1.02815  -1.02565
 Alpha  occ. eigenvalues --   -1.02153  -1.01184  -1.00158  -0.99558  -0.79499
 Alpha  occ. eigenvalues --   -0.78821  -0.77717  -0.75508  -0.71951  -0.68293
 Alpha  occ. eigenvalues --   -0.64878  -0.63261  -0.61672  -0.61085  -0.59632
 Alpha  occ. eigenvalues --   -0.56048  -0.55765  -0.54347  -0.53619  -0.52585
 Alpha  occ. eigenvalues --   -0.52094  -0.51695  -0.51138  -0.50807  -0.48562
 Alpha  occ. eigenvalues --   -0.47684  -0.47303  -0.46240  -0.45835  -0.45352
 Alpha  occ. eigenvalues --   -0.44709  -0.43424  -0.42982  -0.42469  -0.42099
 Alpha  occ. eigenvalues --   -0.40917  -0.40190  -0.39942  -0.38980  -0.38353
 Alpha  occ. eigenvalues --   -0.37533  -0.36667  -0.36176  -0.35640  -0.34850
 Alpha  occ. eigenvalues --   -0.34466  -0.34393  -0.34038  -0.32158  -0.31289
 Alpha  occ. eigenvalues --   -0.30404  -0.29197  -0.28718  -0.28534  -0.28316
 Alpha  occ. eigenvalues --   -0.27599  -0.27338  -0.26977  -0.26698  -0.26181
 Alpha  occ. eigenvalues --   -0.24382
 Alpha virt. eigenvalues --    0.02742   0.03361   0.04091   0.05447   0.05834
 Alpha virt. eigenvalues --    0.06860   0.07328   0.08065   0.09396   0.09639
 Alpha virt. eigenvalues --    0.10855   0.11242   0.11311   0.11925   0.12495

 Mulliken atomic charges:
              1
     1  C    0.260770
     2  C    0.167138
     3  C    0.123906
     4  C    0.160667
     5  C    0.066588
     6  C    0.206759
     7  O   -0.333817
     8  O   -0.288775
     9  O   -0.280965
    10  O   -0.268357
    11  O   -0.362228
    12  O   -0.274297
    13  C    0.234866
    14  C    0.137336
    15  C    0.179073
    16  C    0.064069
    17  C    0.123670
    18  C    0.158846
    19  O   -0.254451
    20  O   -0.310393
    21  O   -0.238813
    22  O   -0.262190
    23  O   -0.254573
    24  H    0.018034
    25  H   -0.008367
    26  H   -0.011159
    27  H   -0.021518
    28  H    0.014838
    29  H   -0.000237
    30  H    0.034527
    31  H    0.139757
    32  H    0.145356
    33  H    0.149333
    34  H    0.150369
    35  H    0.014378
    36  H    0.022798
    37  H   -0.011684
    38  H    0.002206
    39  H    0.005114
    40  H   -0.009728
    41  H    0.019527
    42  H    0.152958
    43  H    0.148170
    44  H    0.150599
    45  H    0.139899
 Sum of Mulliken charges=   0.00000

 Dipole moment (field-independent basis, Debye):
    X=     2.7830    Y=     0.8268    Z=     0.3158  Tot=     2.9204
 Quadrupole moment (field-independent basis, Debye-Ang):
   XX=  -139.1428   YY=  -123.2510   ZZ=  -128.9306
   XY=    -3.7604   XZ=     1.1462   YZ=    10.6881

 Normal termination of Gaussian 03 at Tue May 25 17:50:09 2010.
