 Gaussian 09, Revision A.02,

 ------------------------------------------------------------
 #p opt=tight m06/cc-pvtz scf=tight integral=(grid=ultrafine)
 ------------------------------------------------------------

 ---------------------
 Geometry optimisation
 ---------------------
 Symbolic Z-matrix:
 Charge =  0 Multiplicity = 1

 SCF Done:  E(RM06) =  -726.565982940     A.U. after   15 cycles
 SCF Done:  E(RM06) =  -726.591911628     A.U. after   13 cycles
 SCF Done:  E(RM06) =  -726.612869965     A.U. after   13 cycles
 SCF Done:  E(RM06) =  -726.627273992     A.U. after   15 cycles
 SCF Done:  E(RM06) =  -726.637550483     A.U. after   15 cycles
 SCF Done:  E(RM06) =  -726.639463864     A.U. after   14 cycles
 SCF Done:  E(RM06) =  -726.643446546     A.U. after   13 cycles
 SCF Done:  E(RM06) =  -726.644722759     A.U. after   13 cycles
 SCF Done:  E(RM06) =  -726.644174653     A.U. after   13 cycles
 SCF Done:  E(RM06) =  -726.643641456     A.U. after   16 cycles
 SCF Done:  E(RM06) =  -726.645798123     A.U. after    7 cycles
 SCF Done:  E(RM06) =  -726.645798167     A.U. after    6 cycles
 SCF Done:  E(RM06) =  -726.645798199     A.U. after    6 cycles
 SCF Done:  E(RM06) =  -726.645798220     A.U. after    5 cycles
 SCF Done:  E(RM06) =  -726.645798219     A.U. after    5 cycles
 SCF Done:  E(RM06) =  -726.645798219     A.U. after    4 cycles
 SCF Done:  E(RM06) =  -726.645798219     A.U. after    3 cycles
 SCF Done:  E(RM06) =  -726.645798219     A.U. after    4 cycles
 Optimization completed.
    -- Stationary point found.
 Normal termination of Gaussian 09 at Thu Mar 28 04:10:13 2013.
 Gaussian 09:  EM64L-G09RevA.02 11-Jun-2009

 ----------------------------------------------------------------------
 #p nmr=(giao,mixed,spinspin) m06/cc-pvtz geom=checkpoint integral=(gri
 d=ultrafine) scf=tight
 ----------------------------------------------------------------------

 J-coupling calculation 1
 ------------------------
 Redundant internal coordinates taken from checkpoint file:
 phenylalanine.chk
 Charge =  0 Multiplicity = 1

 SCF Done:  E(RM06) =  -726.696904859     A.U. after   16 cycles
 Normal termination of Gaussian 09 at Thu Apr  4 06:17:09 2013.

 ----------------------------------------------------------------------
 #P Geom=AllCheck Guess=TCheck SCRF=Check GenChk RM06/ChkBas NMR=ReadFC
  IOp(3/6=22)
 ----------------------------------------------------------------------

 J-coupling calculation 1
 ------------------------
 Redundant internal coordinates taken from checkpoint file:
 phenylalanine.chk
 Charge =  0 Multiplicity = 1

                         Standard orientation:
 ---------------------------------------------------------------------
 Center     Atomic      Atomic             Coordinates (Angstroms)
 Number     Number       Type             X           Y           Z
 ---------------------------------------------------------------------
      1          6           0       -0.430724    1.531534    0.053216
      2          8           0       -0.778094    2.347892   -0.774483
      3          7           0       -2.412564    0.235784   -0.285769
      4          1           0       -2.662030    1.011586   -0.885870
      5          7           0        0.502362    1.764639    1.002148
      6          1           0        0.805220    0.988754    1.567072
      7          6           0       -3.419562   -0.625408    0.037511
      8          6           0       -3.054455   -1.775008    0.942035
      9          1           0       -2.213107   -2.355081    0.558422
     10          1           0       -2.778169   -1.410588    1.933450
     11          1           0       -3.922269   -2.420834    1.035810
     12          6           0        1.287015    2.975731    1.020123
     13          1           0        1.390009    3.351380    2.037112
     14          1           0        2.282469    2.814813    0.599105
     15          1           0        0.771080    3.718512    0.417026
     16          8           0       -4.548481   -0.455621   -0.362287
     17          6           0       -1.017268    0.125514    0.040884
     18          1           0       -0.901293   -0.334371    1.027260
     19          6           0       -0.246586   -0.711088   -0.998672
     20          1           0       -0.749010   -1.678073   -1.087498
     21          1           0       -0.344890   -0.204814   -1.962660
     22          6           0        1.190012   -0.893545   -0.627589
     23          6           0        1.546527   -1.823164    0.342814
     24          6           0        2.180330   -0.087801   -1.174301
     25          6           0        2.859866   -1.941178    0.763737
     26          1           0        0.780018   -2.464316    0.768694
     27          6           0        3.495570   -0.204032   -0.758291
     28          1           0        1.908177    0.647188   -1.924755
     29          6           0        3.838039   -1.128343    0.214589
     30          1           0        3.122328   -2.672882    1.516972
     31          1           0        4.256716    0.429057   -1.196083
     32          1           0        4.866185   -1.220731    0.539115
 ---------------------------------------------------------------------

 SCF Done:  E(RM06) =  -726.645802216     A.U. after   10 cycles

  1  C    Isotropic =     2.7034   Anisotropy =   128.9183

  2  O    Isotropic =   -51.4667   Anisotropy =   630.6995

  3  N    Isotropic =   119.3666   Anisotropy =   131.0673

  4  H    Isotropic =    26.1242   Anisotropy =     7.9782

  5  N    Isotropic =   130.4161   Anisotropy =   103.6541

  6  H    Isotropic =    28.5795   Anisotropy =     4.9708

  7  C    Isotropic =     7.8076   Anisotropy =   118.3844

  8  C    Isotropic =   156.8522   Anisotropy =    35.5148

  9  H    Isotropic =    29.8497   Anisotropy =     4.0264

 10  H    Isotropic =    29.9581   Anisotropy =     5.1553

 11  H    Isotropic =    30.0679   Anisotropy =     7.8417

 12  C    Isotropic =   153.5811   Anisotropy =    39.0851

 13  H    Isotropic =    30.1788   Anisotropy =    10.9744

 14  H    Isotropic =    30.3012   Anisotropy =     8.1102

 15  H    Isotropic =    28.1158   Anisotropy =     7.0893

 16  O    Isotropic =  -115.5472   Anisotropy =   589.8943

 17  C    Isotropic =   115.5742   Anisotropy =    22.2927

 18  H    Isotropic =    28.5823   Anisotropy =     4.9518

 19  C    Isotropic =   132.0696   Anisotropy =    38.4577

 20  H    Isotropic =    28.9081   Anisotropy =     4.4172

 21  H    Isotropic =    29.1855   Anisotropy =     3.7064

 22  C    Isotropic =    33.8668   Anisotropy =   210.2451

 23  C    Isotropic =    45.0519   Anisotropy =   174.5960

 24  C    Isotropic =    41.9983   Anisotropy =   177.2543

 25  C    Isotropic =    42.9101   Anisotropy =   193.2215

 26  H    Isotropic =    24.4062   Anisotropy =     8.8826

 27  C    Isotropic =    43.0050   Anisotropy =   193.7123

 28  H    Isotropic =    24.5384   Anisotropy =     8.0314

 29  C    Isotropic =    45.3916   Anisotropy =   192.9133

 30  H    Isotropic =    24.2324   Anisotropy =     5.8253

 31  H    Isotropic =    24.3150   Anisotropy =     5.7549

 32  H    Isotropic =    24.3714   Anisotropy =     4.9949

 The electronic state is 1-A.
 Alpha  occ. eigenvalues --  -19.19496 -19.17055 -14.43246 -14.40958 -10.35364
 Alpha  occ. eigenvalues --  -10.33904 -10.30637 -10.27817 -10.26677 -10.26168
 Alpha  occ. eigenvalues --  -10.25907 -10.25788 -10.25773 -10.25623 -10.25522
 Alpha  occ. eigenvalues --  -10.24461  -1.07870  -1.05422  -0.95717  -0.94543
 Alpha  occ. eigenvalues --   -0.89201  -0.82081  -0.77543  -0.76936  -0.75315
 Alpha  occ. eigenvalues --   -0.72764  -0.67662  -0.63574  -0.61451  -0.60944
 Alpha  occ. eigenvalues --   -0.59310  -0.55835  -0.54069  -0.51564  -0.49587
 Alpha  occ. eigenvalues --   -0.48908  -0.48557  -0.47828  -0.47332  -0.46686
 Alpha  occ. eigenvalues --   -0.44964  -0.44507  -0.43713  -0.43347  -0.41503
 Alpha  occ. eigenvalues --   -0.41251  -0.40646  -0.40257  -0.39342  -0.39198
 Alpha  occ. eigenvalues --   -0.37664  -0.36972  -0.36487  -0.29835  -0.29017
 Alpha  occ. eigenvalues --   -0.28371  -0.28027  -0.26531  -0.26260
 Alpha virt. eigenvalues --   -0.02461  -0.02126   0.00798   0.01743   0.03058
 Alpha virt. eigenvalues --    0.03154   0.03702   0.04675   0.06251   0.06719
 Alpha virt. eigenvalues --    0.07233   0.07834   0.08725   0.09755   0.09967

 Mulliken atomic charges:
              1
     1  C    0.251043
     2  O   -0.378556
     3  N   -0.173416
     4  H    0.155544
     5  N   -0.160465
     6  H    0.150367
     7  C    0.284964
     8  C   -0.420394
     9  H    0.138327
    10  H    0.136124
    11  H    0.138972
    12  C   -0.212291
    13  H    0.103584
    14  H    0.115469
    15  H    0.140216
    16  O   -0.367733
    17  C   -0.158487
    18  H    0.224962
    19  C   -0.415531
    20  H    0.225309
    21  H    0.213174
    22  C    0.147695
    23  C   -0.268580
    24  C   -0.232305
    25  C   -0.137158
    26  H    0.181514
    27  C   -0.148298
    28  H    0.188723
    29  C   -0.124883
    30  H    0.130316
    31  H    0.141237
    32  H    0.130557
 Sum of Mulliken atomic charges =   0.00000

 Dipole moment (field-independent basis, Debye):
    X=              6.0505    Y=             -1.3346    Z=              3.0957  Tot=              6.9263
 Quadrupole moment (field-independent basis, Debye-Ang):
   XX=           -114.2026   YY=            -94.3887   ZZ=            -92.0824
   XY=              5.1726   XZ=             -2.8261   YZ=              0.5363

 Normal termination of Gaussian 09 at Thu Apr  4 17:53:06 2013.
